Variables = "x","y", "Velocity_x", "Velocity_y", "Velocity_whole value", "Pressure", "Absolute pressure", "Total pressure"
Zone i=42, j=42
 0.0000000e+000  0.0000000e+000  0.0000000e+000  0.0000000e+000  0.0000000e+000 -3.4420204e-003 -3.4420204e-003 -3.4420204e-003 
 1.2499974e-004  0.0000000e+000  0.0000000e+000  0.0000000e+000  0.0000000e+000 -3.5011137e-003 -3.5011137e-003 -3.5011137e-003 
 3.7499942e-004  0.0000000e+000  0.0000000e+000  0.0000000e+000  0.0000000e+000 -3.6193007e-003 -3.6193007e-003 -3.6193007e-003 
 6.2499917e-004  0.0000000e+000  0.0000000e+000  0.0000000e+000  0.0000000e+000 -3.9174552e-003 -3.9174552e-003 -3.9174552e-003 
 8.7499851e-004  0.0000000e+000  0.0000000e+000  0.0000000e+000  0.0000000e+000 -4.3468270e-003 -4.3468270e-003 -4.3468270e-003 
 1.1249986e-003  0.0000000e+000  0.0000000e+000  0.0000000e+000  0.0000000e+000 -4.8004808e-003 -4.8004808e-003 -4.8004808e-003 
 1.3749995e-003  0.0000000e+000  0.0000000e+000  0.0000000e+000  0.0000000e+000 -5.2322955e-003 -5.2322955e-003 -5.2322955e-003 
 1.6250000e-003  0.0000000e+000  0.0000000e+000  0.0000000e+000  0.0000000e+000 -5.5997586e-003 -5.5997586e-003 -5.5997586e-003 
 1.8750005e-003  0.0000000e+000  0.0000000e+000  0.0000000e+000  0.0000000e+000 -5.8732503e-003 -5.8732503e-003 -5.8732503e-003 
 2.1250006e-003  0.0000000e+000  0.0000000e+000  0.0000000e+000  0.0000000e+000 -6.0337358e-003 -6.0337358e-003 -6.0337358e-003 
 2.3750006e-003  0.0000000e+000  0.0000000e+000  0.0000000e+000  0.0000000e+000 -6.0700797e-003 -6.0700797e-003 -6.0700797e-003 
 2.6250007e-003  0.0000000e+000  0.0000000e+000  0.0000000e+000  0.0000000e+000 -5.9773712e-003 -5.9773712e-003 -5.9773712e-003 
 2.8750000e-003  0.0000000e+000  0.0000000e+000  0.0000000e+000  0.0000000e+000 -5.7557938e-003 -5.7557938e-003 -5.7557938e-003 
 3.1250005e-003  0.0000000e+000  0.0000000e+000  0.0000000e+000  0.0000000e+000 -5.4096845e-003 -5.4096845e-003 -5.4096845e-003 
 3.3750006e-003  0.0000000e+000  0.0000000e+000  0.0000000e+000  0.0000000e+000 -4.9468037e-003 -4.9468037e-003 -4.9468037e-003 
 3.6250006e-003  0.0000000e+000  0.0000000e+000  0.0000000e+000  0.0000000e+000 -4.3777209e-003 -4.3777209e-003 -4.3777209e-003 
 3.8750011e-003  0.0000000e+000  0.0000000e+000  0.0000000e+000  0.0000000e+000 -3.7152818e-003 -3.7152818e-003 -3.7152818e-003 
 4.1250009e-003  0.0000000e+000  0.0000000e+000  0.0000000e+000  0.0000000e+000 -2.9741586e-003 -2.9741586e-003 -2.9741586e-003 
 4.3750014e-003  0.0000000e+000  0.0000000e+000  0.0000000e+000  0.0000000e+000 -2.1704400e-003 -2.1704400e-003 -2.1704400e-003 
 4.6250019e-003  0.0000000e+000  0.0000000e+000  0.0000000e+000  0.0000000e+000 -1.3212778e-003 -1.3212778e-003 -1.3212778e-003 
 4.8750024e-003  0.0000000e+000  0.0000000e+000  0.0000000e+000  0.0000000e+000 -4.4456273e-004 -4.4456273e-004 -4.4456273e-004 
 5.1250029e-003  0.0000000e+000  0.0000000e+000  0.0000000e+000  0.0000000e+000  4.4138802e-004  4.4138802e-004  4.4138802e-004 
 5.3750034e-003  0.0000000e+000  0.0000000e+000  0.0000000e+000  0.0000000e+000  1.3181089e-003  1.3181089e-003  1.3181089e-003 
 5.6250039e-003  0.0000000e+000  0.0000000e+000  0.0000000e+000  0.0000000e+000  2.1672803e-003  2.1672803e-003  2.1672803e-003 
 5.8750045e-003  0.0000000e+000  0.0000000e+000  0.0000000e+000  0.0000000e+000  2.9710140e-003  2.9710140e-003  2.9710140e-003 
 6.1250050e-003  0.0000000e+000  0.0000000e+000  0.0000000e+000  0.0000000e+000  3.7121542e-003  3.7121542e-003  3.7121542e-003 
 6.3750055e-003  0.0000000e+000  0.0000000e+000  0.0000000e+000  0.0000000e+000  4.3746103e-003  4.3746103e-003  4.3746103e-003 
 6.6250060e-003  0.0000000e+000  0.0000000e+000  0.0000000e+000  0.0000000e+000  4.9437052e-003  4.9437052e-003  4.9437052e-003 
 6.8750065e-003  0.0000000e+000  0.0000000e+000  0.0000000e+000  0.0000000e+000  5.4065948e-003  5.4065948e-003  5.4065948e-003 
 7.1250070e-003  0.0000000e+000  0.0000000e+000  0.0000000e+000  0.0000000e+000  5.7527069e-003  5.7527069e-003  5.7527069e-003 
 7.3750075e-003  0.0000000e+000  0.0000000e+000  0.0000000e+000  0.0000000e+000  5.9742811e-003  5.9742811e-003  5.9742811e-003 
 7.6250080e-003  0.0000000e+000  0.0000000e+000  0.0000000e+000  0.0000000e+000  6.0669752e-003  6.0669752e-003  6.0669752e-003 
 7.8750085e-003  0.0000000e+000  0.0000000e+000  0.0000000e+000  0.0000000e+000  6.0306164e-003  6.0306164e-003  6.0306164e-003 
 8.1250090e-003  0.0000000e+000  0.0000000e+000  0.0000000e+000  0.0000000e+000  5.8701048e-003  5.8701048e-003  5.8701048e-003 
 8.3750095e-003  0.0000000e+000  0.0000000e+000  0.0000000e+000  0.0000000e+000  5.5965888e-003  5.5965888e-003  5.5965888e-003 
 8.6250100e-003  0.0000000e+000  0.0000000e+000  0.0000000e+000  0.0000000e+000  5.2291034e-003  5.2291034e-003  5.2291034e-003 
 8.8750105e-003  0.0000000e+000  0.0000000e+000  0.0000000e+000  0.0000000e+000  4.7972696e-003  4.7972696e-003  4.7972696e-003 
 9.1250110e-003  0.0000000e+000  0.0000000e+000  0.0000000e+000  0.0000000e+000  4.3435991e-003  4.3435991e-003  4.3435991e-003 
 9.3750115e-003  0.0000000e+000  0.0000000e+000  0.0000000e+000  0.0000000e+000  3.9142459e-003  3.9142459e-003  3.9142459e-003 
 9.6250121e-003  0.0000000e+000  0.0000000e+000  0.0000000e+000  0.0000000e+000  3.6160944e-003  3.6160944e-003  3.6160944e-003 
 9.8750060e-003  0.0000000e+000  0.0000000e+000  0.0000000e+000  0.0000000e+000  3.4979274e-003  3.4979274e-003  3.4979274e-003 
 9.9999998e-003  0.0000000e+000  0.0000000e+000  0.0000000e+000  0.0000000e+000  3.4388455e-003  3.4388455e-003  3.4388455e-003 
 0.0000000e+000  1.2499974e-004  0.0000000e+000  0.0000000e+000  0.0000000e+000 -3.3824726e-003 -3.3824726e-003 -3.3824726e-003 
 1.2499974e-004  1.2499974e-004  5.0759479e-007 -5.0745285e-007  7.1774707e-007 -3.4416509e-003 -3.4416509e-003 -3.4416509e-003 
 3.7499942e-004  1.2499974e-004  1.1455331e-006 -5.2609727e-007  1.2605651e-006 -3.5600075e-003 -3.5600075e-003 -3.5600075e-003 
 6.2499917e-004  1.2499974e-004  9.6367080e-007 -2.2877607e-007  9.9045440e-007 -3.8295621e-003 -3.8295621e-003 -3.8295621e-003 
 8.7499851e-004  1.2499974e-004 -6.0281258e-007  6.8128159e-008  6.0665019e-007 -4.2105126e-003 -4.2105126e-003 -4.2105126e-003 
 1.1249986e-003  1.2499974e-004 -3.6658412e-006  3.4124994e-007  3.6816903e-006 -4.6141464e-003 -4.6141464e-003 -4.6141464e-003 
 1.3749995e-003  1.2499974e-004 -8.0714362e-006  5.5835613e-007  8.0907257e-006 -4.9976734e-003 -4.9976734e-003 -4.9976734e-003 
 1.6250000e-003  1.2499974e-004 -1.3611080e-005  7.2056253e-007  1.3630140e-005 -5.3233579e-003 -5.3233579e-003 -5.3233579e-003 
 1.8750005e-003  1.2499974e-004 -2.0038924e-005  8.3489783e-007  2.0056308e-005 -5.5641746e-003 -5.5641746e-003 -5.5641746e-003 
 2.1250006e-003  1.2499974e-004 -2.7098840e-005  9.0718544e-007  2.7114022e-005 -5.7021985e-003 -5.7021985e-003 -5.7021980e-003 
 2.3750006e-003  1.2499974e-004 -3.4538363e-005  9.4239942e-007  3.4551216e-005 -5.7266005e-003 -5.7266005e-003 -5.7266001e-003 
 2.6250007e-003  1.2499974e-004 -4.2115789e-005  9.4485489e-007  4.2126387e-005 -5.6322869e-003 -5.6322869e-003 -5.6322860e-003 
 2.8750000e-003  1.2499974e-004 -4.9604703e-005  9.1851979e-007  4.9613205e-005 -5.4189274e-003 -5.4189274e-003 -5.4189260e-003 
 3.1250005e-003  1.2499974e-004 -5.6797227e-005  8.6701652e-007  5.6803845e-005 -5.0901286e-003 -5.0901286e-003 -5.0901272e-003 
 3.3750006e-003  1.2499974e-004 -6.3505962e-005  7.9375491e-007  6.3510925e-005 -4.6527758e-003 -4.6527758e-003 -4.6527740e-003 
 3.6250006e-003  1.2499974e-004 -6.9565540e-005  7.0201833e-007  6.9569083e-005 -4.1164602e-003 -4.1164602e-003 -4.1164579e-003 
 3.8750011e-003  1.2499974e-004 -7.4833522e-005  5.9487343e-007  7.4835887e-005 -3.4929826e-003 -3.4929826e-003 -3.4929798e-003 
 4.1250009e-003  1.2499974e-004 -7.9190861e-005  4.7532751e-007  7.9192287e-005 -2.7959286e-003 -2.7959286e-003 -2.7959256e-003 
 4.3750014e-003  1.2499974e-004 -8.2542261e-005  3.4625222e-007  8.2542989e-005 -2.0402703e-003 -2.0402703e-003 -2.0402668e-003 
 4.6250019e-003  1.2499974e-004 -8.4816238e-005  2.1043468e-007  8.4816500e-005 -1.2420298e-003 -1.2420298e-003 -1.2420262e-003 
 4.8750024e-003  1.2499974e-004 -8.5965148e-005  7.0590374e-008  8.5965177e-005 -4.1795411e-004 -4.1795411e-004 -4.1795042e-004 
 5.1250029e-003  1.2499974e-004 -8.5965185e-005 -7.0574302e-008  8.5965214e-005  4.1478089e-004  4.1478089e-004  4.1478459e-004 
 5.3750034e-003  1.2499974e-004 -8.4816347e-005 -2.1042497e-007  8.4816609e-005  1.2388614e-003  1.2388614e-003  1.2388650e-003 
 5.6250039e-003  1.2499974e-004 -8.2542414e-005 -3.4625202e-007  8.2543142e-005  2.0371114e-003  2.0371114e-003  2.0371149e-003 
 5.8750045e-003  1.2499974e-004 -7.9191035e-005 -4.7533200e-007  7.9192461e-005  2.7927826e-003  2.7927826e-003  2.7927856e-003 
 6.1250050e-003  1.2499974e-004 -7.4833668e-005 -5.9488247e-007  7.4836033e-005  3.4898522e-003  3.4898522e-003  3.4898550e-003 
 6.3750055e-003  1.2499974e-004 -6.9565620e-005 -7.0203401e-007  6.9569163e-005  4.1133449e-003  4.1133449e-003  4.1133473e-003 
 6.6250060e-003  1.2499974e-004 -6.3505919e-005 -7.9378788e-007  6.3510881e-005  4.6496731e-003  4.6496731e-003  4.6496750e-003 
 6.8750065e-003  1.2499974e-004 -5.6797031e-005 -8.6705438e-007  5.6803648e-005  5.0870343e-003  5.0870343e-003  5.0870357e-003 
 7.1250070e-003  1.2499974e-004 -4.9604350e-005 -9.1854838e-007  4.9612856e-005  5.4158345e-003  5.4158345e-003  5.4158359e-003 
 7.3750075e-003  1.2499974e-004 -4.2115244e-005 -9.4490139e-007  4.2125841e-005  5.6291921e-003  5.6291921e-003  5.6291930e-003 
 7.6250080e-003  1.2499974e-004 -3.4537665e-005 -9.4242068e-007  3.4550521e-005  5.7234927e-003  5.7234927e-003  5.7234932e-003 
 7.8750085e-003  1.2499974e-004 -2.7098029e-005 -9.0721863e-007  2.7113212e-005  5.6990767e-003  5.6990767e-003  5.6990772e-003 
 8.1250090e-003  1.2499974e-004 -2.0038042e-005 -8.3490329e-007  2.0055428e-005  5.5610300e-003  5.5610300e-003  5.5610300e-003 
 8.3750095e-003  1.2499974e-004 -1.3610220e-005 -7.2055963e-007  1.3629281e-005  5.3201914e-003  5.3201914e-003  5.3201914e-003 
 8.6250100e-003  1.2499974e-004 -8.0706677e-006 -5.5833499e-007  8.0899581e-006  4.9944865e-003  4.9944865e-003  4.9944865e-003 
 8.8750105e-003  1.2499974e-004 -3.6652395e-006 -3.4122462e-007  3.6810889e-006  4.6109427e-003  4.6109427e-003  4.6109427e-003 
 9.1250110e-003  1.2499974e-004 -6.0242445e-007 -6.8108676e-008  6.0626235e-007  4.2072944e-003  4.2072944e-003  4.2072944e-003 
 9.3750115e-003  1.2499974e-004  9.6384895e-007  2.2883940e-007  9.9064232e-007  3.8263563e-003  3.8263563e-003  3.8263563e-003 
 9.6250121e-003  1.2499974e-004  1.1455429e-006  5.2613160e-007  1.2605884e-006  3.5568054e-003  3.5568054e-003  3.5568054e-003 
 9.8750060e-003  1.2499974e-004  5.0753425e-007  5.0742347e-007  7.1768346e-007  3.4384693e-003  3.4384693e-003  3.4384693e-003 
 9.9999998e-003  1.2499974e-004  0.0000000e+000  0.0000000e+000  0.0000000e+000  3.3793026e-003  3.3793026e-003  3.3793026e-003 
 0.0000000e+000  3.7499942e-004  0.0000000e+000  0.0000000e+000  0.0000000e+000 -3.2633769e-003 -3.2633769e-003 -3.2633769e-003 
 1.2499974e-004  3.7499942e-004  5.3721152e-007 -1.1486525e-006  1.2680689e-006 -3.3227250e-003 -3.3227250e-003 -3.3227250e-003 
 3.7499942e-004  3.7499942e-004  4.0261716e-007 -3.7305239e-007  5.4887948e-007 -3.4414211e-003 -3.4414211e-003 -3.4414211e-003 
 6.2499917e-004  3.7499942e-004 -2.1800147e-006  1.9168067e-006  2.9028627e-006 -3.6537759e-003 -3.6537759e-003 -3.6537759e-003 
 8.7499851e-004  3.7499942e-004 -8.0355858e-006  4.6299674e-006  9.2740083e-006 -3.9378838e-003 -3.9378838e-003 -3.9378838e-003 
 1.1249986e-003  3.7499942e-004 -1.7398666e-005  7.3014221e-006  1.8868608e-005 -4.2414777e-003 -4.2414777e-003 -4.2414777e-003 
 1.3749995e-003  3.7499942e-004 -3.0038060e-005  9.6616341e-006  3.1553642e-005 -4.5284289e-003 -4.5284289e-003 -4.5284284e-003 
 1.6250000e-003  3.7499942e-004 -4.5499670e-005  1.1594122e-005  4.6953632e-005 -4.7705565e-003 -4.7705565e-003 -4.7705555e-003 
 1.8750005e-003  3.7499942e-004 -6.3211723e-005  1.3053253e-005  6.4545406e-005 -4.9460228e-003 -4.9460228e-003 -4.9460209e-003 
 2.1250006e-003  3.7499942e-004 -8.2546896e-005  1.4028468e-005  8.3730447e-005 -5.0391238e-003 -5.0391238e-003 -5.0391201e-003 
 2.3750006e-003  3.7499942e-004 -1.0286339e-004  1.4529829e-005  1.0388451e-004 -5.0396416e-003 -5.0396416e-003 -5.0396360e-003 
 2.6250007e-003  3.7499942e-004 -1.2353143e-004  1.4580150e-005  1.2438888e-004 -4.9421177e-003 -4.9421177e-003 -4.9421098e-003 
 2.8750000e-003  3.7499942e-004 -1.4395120e-004  1.4210788e-005  1.4465094e-004 -4.7451938e-003 -4.7451938e-003 -4.7451835e-003 
 3.1250005e-003  3.7499942e-004 -1.6356520e-004  1.3458632e-005  1.6411797e-004 -4.4510164e-003 -4.4510164e-003 -4.4510029e-003 
 3.3750006e-003  3.7499942e-004 -1.8186626e-004  1.2364370e-005  1.8228608e-004 -4.0647197e-003 -4.0647197e-003 -4.0647029e-003 
 3.6250006e-003  3.7499942e-004 -1.9840378e-004  1.0971272e-005  1.9870690e-004 -3.5939380e-003 -3.5939380e-003 -3.5939182e-003 
 3.8750011e-003  3.7499942e-004 -2.1278742e-004  9.3240587e-006  2.1299161e-004 -3.0483834e-003 -3.0483834e-003 -3.0483608e-003 
 4.1250009e-003  3.7499942e-004 -2.2468959e-004  7.4684262e-006  2.2481367e-004 -2.4394675e-003 -2.4394675e-003 -2.4394421e-003 
 4.3750014e-003  3.7499942e-004 -2.3384720e-004  5.4505444e-006  2.3391072e-004 -1.7799303e-003 -1.7799303e-003 -1.7799030e-003 
 4.6250019e-003  3.7499942e-004 -2.4006239e-004  3.3167230e-006  2.4008530e-004 -1.0835339e-003 -1.0835339e-003 -1.0835050e-003 
 4.8750024e-003  3.7499942e-004 -2.4320306e-004  1.1133482e-006  2.4320561e-004 -3.6473654e-004 -3.6473654e-004 -3.6470697e-004 
 5.1250029e-003  3.7499942e-004 -2.4320313e-004 -1.1132113e-006  2.4320568e-004  3.6156658e-004  3.6156658e-004  3.6159615e-004 
 5.3750034e-003  3.7499942e-004 -2.4006260e-004 -3.3166234e-006  2.4008550e-004  1.0803667e-003  1.0803667e-003  1.0803955e-003 
 5.6250039e-003  3.7499942e-004 -2.3384749e-004 -5.4504876e-006  2.3391099e-004  1.7767741e-003  1.7767741e-003  1.7768014e-003 
 5.8750045e-003  3.7499942e-004 -2.2468988e-004 -7.4684408e-006  2.2481396e-004  2.4363198e-003  2.4363198e-003  2.4363452e-003 
 6.1250050e-003  3.7499942e-004 -2.1278761e-004 -9.3241424e-006  2.1299180e-004  3.0452486e-003  3.0452486e-003  3.0452712e-003 
 6.3750055e-003  3.7499942e-004 -1.9840380e-004 -1.0971437e-005  1.9870691e-004  3.5908145e-003  3.5908145e-003  3.5908343e-003 
 6.6250060e-003  3.7499942e-004 -1.8186597e-004 -1.2364614e-005  1.8228580e-004  4.0616081e-003  4.0616081e-003  4.0616249e-003 
 6.8750065e-003  3.7499942e-004 -1.6356452e-004 -1.3458925e-005  1.6411731e-004  4.4479137e-003  4.4479137e-003  4.4479272e-003 
 7.1250070e-003  3.7499942e-004 -1.4395016e-004 -1.4211080e-005  1.4464994e-004  4.7420897e-003  4.7420897e-003  4.7420999e-003 
 7.3750075e-003  3.7499942e-004 -1.2352993e-004 -1.4580455e-005  1.2438743e-004  4.9390122e-003  4.9390122e-003  4.9390201e-003 
 7.6250080e-003  3.7499942e-004 -1.0286151e-004 -1.4530046e-005  1.0388268e-004  5.0365259e-003  5.0365259e-003  5.0365315e-003 
 7.8750085e-003  3.7499942e-004 -8.2544771e-005 -1.4028628e-005  8.3728381e-005  5.0359964e-003  5.0359964e-003  5.0360002e-003 
 8.1250090e-003  3.7499942e-004 -6.3209431e-005 -1.3053271e-005  6.4543165e-005  4.9428791e-003  4.9428791e-003  4.9428809e-003 
 8.3750095e-003  3.7499942e-004 -4.5497440e-005 -1.1594018e-005  4.6951445e-005  4.7673951e-003  4.7673951e-003  4.7673960e-003 
 8.6250100e-003  3.7499942e-004 -3.0036061e-005 -9.6613976e-006  3.1551666e-005  4.5252508e-003  4.5252508e-003  4.5252512e-003 
 8.8750105e-003  3.7499942e-004 -1.7397071e-005 -7.3010988e-006  1.8867011e-005  4.2382875e-003  4.2382875e-003  4.2382875e-003 
 9.1250110e-003  3.7499942e-004 -8.0344525e-006 -4.6296041e-006  9.2728451e-006  3.9346847e-003  3.9346847e-003  3.9346847e-003 
 9.3750115e-003  3.7499942e-004 -2.1793685e-006 -1.9164027e-006  2.9021107e-006  3.6505768e-003  3.6505768e-003  3.6505768e-003 
 9.6250121e-003  3.7499942e-004  4.0281685e-007  3.7333038e-007  5.4921486e-007  3.4382269e-003  3.4382269e-003  3.4382269e-003 
 9.8750060e-003  3.7499942e-004  5.3716241e-007  1.1486552e-006  1.2680506e-006  3.3195522e-003  3.3195522e-003  3.3195522e-003 
 9.9999998e-003  3.7499942e-004  0.0000000e+000  0.0000000e+000  0.0000000e+000  3.2602164e-003  3.2602164e-003  3.2602164e-003 
 0.0000000e+000  6.2499917e-004  0.0000000e+000  0.0000000e+000  0.0000000e+000 -2.9609078e-003 -2.9609078e-003 -2.9609078e-003 
 1.2499974e-004  6.2499917e-004  2.6789064e-007 -9.9553665e-007  1.0309503e-006 -3.0506924e-003 -3.0506924e-003 -3.0506924e-003 
 3.7499942e-004  6.2499917e-004 -1.8102469e-006  2.1843377e-006  2.8369570e-006 -3.2302618e-003 -3.2302618e-003 -3.2302618e-003 
 6.2499917e-004  6.2499917e-004 -8.0805348e-006  8.1947046e-006  1.1508615e-005 -3.4457729e-003 -3.4457729e-003 -3.4457729e-003 
 8.7499851e-004  6.2499917e-004 -1.9120869e-005  1.5166368e-005  2.4405457e-005 -3.7057423e-003 -3.7057423e-003 -3.7057421e-003 
 1.1249986e-003  6.2499917e-004 -3.5101079e-005  2.2049677e-005  4.1452069e-005 -3.9751572e-003 -3.9751572e-003 -3.9751562e-003 
 1.3749995e-003  6.2499917e-004 -5.5699824e-005  2.8217759e-005  6.2439671e-005 -4.2243353e-003 -4.2243353e-003 -4.2243334e-003 
 1.6250000e-003  6.2499917e-004 -8.0291502e-005  3.3333523e-005  8.6935892e-005 -4.4308831e-003 -4.4308831e-003 -4.4308794e-003 
 1.8750005e-003  6.2499917e-004 -1.0807693e-004  3.7231137e-005  1.1431002e-004 -4.5770407e-003 -4.5770407e-003 -4.5770342e-003 
 2.1250006e-003  6.2499917e-004 -1.3816336e-004  3.9846749e-005  1.4379458e-004 -4.6494966e-003 -4.6494966e-003 -4.6494864e-003 
 2.3750006e-003  6.2499917e-004 -1.6962168e-004  4.1181684e-005  1.7454926e-004 -4.6393159e-003 -4.6393159e-003 -4.6393005e-003 
 2.6250007e-003  6.2499917e-004 -2.0152755e-004  4.1280226e-005  2.0571196e-004 -4.5415596e-003 -4.5415596e-003 -4.5415387e-003 
 2.8750000e-003  6.2499917e-004 -2.3299093e-004  4.0216160e-005  2.3643627e-004 -4.3548271e-003 -4.3548271e-003 -4.3547992e-003 
 3.1250005e-003  6.2499917e-004 -2.6317764e-004  3.8083359e-005  2.6591882e-004 -4.0808264e-003 -4.0808264e-003 -4.0807910e-003 
 3.3750006e-003  6.2499917e-004 -2.9132373e-004  3.4989658e-005  2.9341743e-004 -3.7239552e-003 -3.7239552e-003 -3.7239122e-003 
 3.6250006e-003  6.2499917e-004 -3.1674685e-004  3.1052510e-005  3.1826535e-004 -3.2909131e-003 -3.2909131e-003 -3.2908623e-003 
 3.8750011e-003  6.2499917e-004 -3.3885351e-004  2.6395550e-005  3.3988003e-004 -2.7903221e-003 -2.7903221e-003 -2.7902643e-003 
 4.1250009e-003  6.2499917e-004 -3.5714399e-004  2.1146479e-005  3.5776949e-004 -2.2323891e-003 -2.2323891e-003 -2.2323250e-003 
 4.3750014e-003  6.2499917e-004 -3.7121592e-004  1.5435400e-005  3.7153671e-004 -1.6285885e-003 -1.6285885e-003 -1.6285195e-003 
 4.6250019e-003  6.2499917e-004 -3.8076614e-004  9.3936915e-006  3.8088200e-004 -9.9135039e-004 -9.9135039e-004 -9.9127786e-004 
 4.8750024e-003  6.2499917e-004 -3.8559202e-004  3.1534146e-006  3.8560492e-004 -3.3378057e-004 -3.3378057e-004 -3.3370624e-004 
 5.1250029e-003  6.2499917e-004 -3.8559211e-004 -3.1531247e-006  3.8560500e-004  3.3060566e-004  3.3060566e-004  3.3067999e-004 
 5.3750034e-003  6.2499917e-004 -3.8076640e-004 -9.3934750e-006  3.8088227e-004  9.8818110e-004  9.8818110e-004  9.8825363e-004 
 5.6250039e-003  6.2499917e-004 -3.7121624e-004 -1.5435291e-005  3.7153700e-004  1.6254296e-003  1.6254296e-003  1.6254986e-003 
 5.8750045e-003  6.2499917e-004 -3.5714428e-004 -2.1146552e-005  3.5776978e-004  2.2292386e-003  2.2292386e-003  2.2293027e-003 
 6.1250050e-003  6.2499917e-004 -3.3885363e-004 -2.6395806e-005  3.3988015e-004  2.7871833e-003  2.7871833e-003  2.7872410e-003 
 6.3750055e-003  6.2499917e-004 -3.1674671e-004 -3.1052972e-005  3.1826523e-004  3.2877845e-003  3.2877845e-003  3.2878353e-003 
 6.6250060e-003  6.2499917e-004 -2.9132314e-004 -3.4990291e-005  2.9341693e-004  3.7208388e-003  3.7208388e-003  3.7208819e-003 
 6.8750065e-003  6.2499917e-004 -2.6317651e-004 -3.8084101e-005  2.6591780e-004  4.0777181e-003  4.0777181e-003  4.0777535e-003 
 7.1250070e-003  6.2499917e-004 -2.3298927e-004 -4.0216928e-005  2.3643477e-004  4.3517170e-003  4.3517170e-003  4.3517449e-003 
 7.3750075e-003  6.2499917e-004 -2.0152522e-004 -4.1280968e-005  2.0570983e-004  4.5384504e-003  4.5384504e-003  4.5384713e-003 
 7.6250080e-003  6.2499917e-004 -1.6961884e-004 -4.1182244e-005  1.7454664e-004  4.6361992e-003  4.6361992e-003  4.6362146e-003 
 7.8750085e-003  6.2499917e-004 -1.3816016e-004 -3.9847124e-005  1.4379159e-004  4.6463683e-003  4.6463683e-003  4.6463786e-003 
 8.1250090e-003  6.2499917e-004 -1.0807350e-004 -3.7231181e-005  1.1430679e-004  4.5738965e-003  4.5738965e-003  4.5739030e-003 
 8.3750095e-003  6.2499917e-004 -8.0288162e-005 -3.3333235e-005  8.6932698e-005  4.4277231e-003  4.4277231e-003  4.4277268e-003 
 8.6250100e-003  6.2499917e-004 -5.5696812e-005 -2.8217146e-005  6.2436702e-005  4.2211590e-003  4.2211590e-003  4.2211609e-003 
 8.8750105e-003  6.2499917e-004 -3.5098637e-005 -2.2048822e-005  4.1449548e-005  3.9719702e-003  3.9719702e-003  3.9719711e-003 
 9.1250110e-003  6.2499917e-004 -1.9119063e-005 -1.5165381e-005  2.4403429e-005  3.7025472e-003  3.7025472e-003  3.7025474e-003 
 9.3750115e-003  6.2499917e-004 -8.0794098e-006 -8.1936996e-006  1.1507110e-005  3.4425750e-003  3.4425750e-003  3.4425750e-003 
 9.6250121e-003  6.2499917e-004 -1.8097888e-006 -2.1835879e-006  2.8360873e-006  3.2270676e-003  3.2270676e-003  3.2270676e-003 
 9.8750060e-003  6.2499917e-004  2.6788456e-007  9.9568706e-007  1.0310940e-006  3.0475231e-003  3.0475231e-003  3.0475231e-003 
 9.9999998e-003  6.2499917e-004  0.0000000e+000  0.0000000e+000  0.0000000e+000  2.9577529e-003  2.9577529e-003  2.9577529e-003 
 0.0000000e+000  8.7499851e-004  0.0000000e+000  0.0000000e+000  0.0000000e+000 -2.5292637e-003 -2.5292637e-003 -2.5292637e-003 
 1.2499974e-004  8.7499851e-004 -1.4598790e-008  4.8415683e-007  4.8437687e-007 -2.6679013e-003 -2.6679013e-003 -2.6679013e-003 
 3.7499942e-004  8.7499851e-004 -4.4954668e-006  7.9717302e-006  9.1519232e-006 -2.9451768e-003 -2.9451768e-003 -2.9451768e-003 
 6.2499917e-004  8.7499851e-004 -1.5081674e-005  1.9222232e-005  2.4432584e-005 -3.1942690e-003 -3.1942690e-003 -3.1942688e-003 
 8.7499851e-004  8.7499851e-004 -3.1800788e-005  3.1763811e-005  4.4946966e-005 -3.4613765e-003 -3.4613765e-003 -3.4613756e-003 
 1.1249986e-003  8.7499851e-004 -5.4609976e-005  4.4035023e-005  7.0152215e-005 -3.7254419e-003 -3.7254419e-003 -3.7254393e-003 
 1.3749995e-003  8.7499851e-004 -8.3037681e-005  5.5039516e-005  9.9622310e-005 -3.9616567e-003 -3.9616567e-003 -3.9616516e-003 
 1.6250000e-003  8.7499851e-004 -1.1628874e-004  6.4189844e-005  1.3282849e-004 -4.1525518e-003 -4.1525518e-003 -4.1525429e-003 
 1.8750005e-003  8.7499851e-004 -1.5337436e-004  7.1167742e-005  1.6908147e-004 -4.2843195e-003 -4.2843195e-003 -4.2843050e-003 
 2.1250006e-003  8.7499851e-004 -1.9319322e-004  7.5831456e-005  2.0754283e-004 -4.3462934e-003 -4.3462934e-003 -4.3462720e-003 
 2.3750006e-003  8.7499851e-004 -2.3459349e-004  7.8159726e-005  2.4727121e-004 -4.3312255e-003 -4.3312255e-003 -4.3311948e-003 
 2.6250007e-003  8.7499851e-004 -2.7642169e-004  7.8214973e-005  2.8727431e-004 -4.2351536e-003 -4.2351536e-003 -4.2351121e-003 
 2.8750000e-003  8.7499851e-004 -3.1756033e-004  7.6118951e-005  3.2655575e-004 -4.0571145e-003 -4.0571145e-003 -4.0570609e-003 
 3.1250005e-003  8.7499851e-004 -3.5695630e-004  7.2035298e-005  3.6415228e-004 -3.7988331e-003 -3.7988331e-003 -3.7987668e-003 
 3.3750006e-003  8.7499851e-004 -3.9364083e-004  6.6157394e-005  3.9916151e-004 -3.4644108e-003 -3.4644108e-003 -3.4643312e-003 
 3.6250006e-003  8.7499851e-004 -4.2674542e-004  5.8699457e-005  4.3076361e-004 -3.0600112e-003 -3.0600112e-003 -3.0599185e-003 
 3.8750011e-003  8.7499851e-004 -4.5551240e-004  4.9889684e-005  4.5823632e-004 -2.5935452e-003 -2.5935452e-003 -2.5934402e-003 
 4.1250009e-003  8.7499851e-004 -4.7930234e-004  3.9965766e-005  4.8096568e-004 -2.0743757e-003 -2.0743757e-003 -2.0742600e-003 
 4.3750014e-003  8.7499851e-004 -4.9759948e-004  2.9171128e-005  4.9845380e-004 -1.5130277e-003 -1.5130277e-003 -1.5129035e-003 
 4.6250019e-003  8.7499851e-004 -5.1001465e-004  1.7752724e-005  5.1032350e-004 -9.2093291e-004 -9.2093291e-004 -9.2080270e-004 
 4.8750024e-003  8.7499851e-004 -5.1628746e-004  5.9594217e-006  5.1632186e-004 -3.1013277e-004 -3.1013277e-004 -3.0999948e-004 
 5.1250029e-003  8.7499851e-004 -5.1628758e-004 -5.9589747e-006  5.1632198e-004  3.0694745e-004  3.0694745e-004  3.0708074e-004 
 5.3750034e-003  8.7499851e-004 -5.1001488e-004 -1.7752383e-005  5.1032373e-004  9.1775513e-004  9.1775513e-004  9.1788534e-004 
 5.6250039e-003  8.7499851e-004 -4.9759983e-004 -2.9170988e-005  4.9845414e-004  1.5098584e-003  1.5098584e-003  1.5099826e-003 
 5.8750045e-003  8.7499851e-004 -4.7930266e-004 -3.9965944e-005  4.8096603e-004  2.0712137e-003  2.0712137e-003  2.0713294e-003 
 6.1250050e-003  8.7499851e-004 -4.5551246e-004 -4.9890201e-005  4.5823643e-004  2.5903964e-003  2.5903964e-003  2.5905014e-003 
 6.3750055e-003  8.7499851e-004 -4.2674516e-004 -5.8700291e-005  4.3076347e-004  3.0568752e-003  3.0568752e-003  3.0569679e-003 
 6.6250060e-003  8.7499851e-004 -3.9364002e-004 -6.6158522e-005  3.9916090e-004  3.4612881e-003  3.4612881e-003  3.4613677e-003 
 6.8750065e-003  8.7499851e-004 -3.5695481e-004 -7.2036622e-005  3.6415108e-004  3.7957195e-003  3.7957195e-003  3.7957858e-003 
 7.1250070e-003  8.7499851e-004 -3.1755821e-004 -7.6120319e-005  3.2655400e-004  4.0540006e-003  4.0540006e-003  4.0540542e-003 
 7.3750075e-003  8.7499851e-004 -2.7641878e-004 -7.8216275e-005  2.8727186e-004  4.2320397e-003  4.2320397e-003  4.2320811e-003 
 7.6250080e-003  8.7499851e-004 -2.3458993e-004 -7.8160738e-005  2.4726815e-004  4.3281061e-003  4.3281061e-003  4.3281368e-003 
 7.8750085e-003  8.7499851e-004 -1.9318920e-004 -7.5832097e-005  2.0753933e-004  4.3431642e-003  4.3431642e-003  4.3431856e-003 
 8.1250090e-003  8.7499851e-004 -1.5337003e-004 -7.1167808e-005  1.6907757e-004  4.2811758e-003  4.2811758e-003  4.2811902e-003 
 8.3750095e-003  8.7499851e-004 -1.1628449e-004 -6.4189328e-005  1.3282451e-004  4.1493913e-003  4.1493913e-003  4.1494002e-003 
 8.6250100e-003  8.7499851e-004 -8.3033810e-005 -5.5038425e-005  9.9618483e-005  3.9584800e-003  3.9584800e-003  3.9584851e-003 
 8.8750105e-003  8.7499851e-004 -5.4606793e-005 -4.4033502e-005  7.0148781e-005  3.7222516e-003  3.7222516e-003  3.7222542e-003 
 9.1250110e-003  8.7499851e-004 -3.1798369e-005 -3.1762032e-005  4.4943998e-005  3.4581781e-003  3.4581781e-003  3.4581791e-003 
 9.3750115e-003  8.7499851e-004 -1.5080088e-005 -1.9220424e-005  2.4430181e-005  3.1910664e-003  3.1910664e-003  3.1910667e-003 
 9.6250121e-003  8.7499851e-004 -4.4947346e-006 -7.9703095e-006  9.1503262e-006  2.9419765e-003  2.9419765e-003  2.9419765e-003 
 9.8750060e-003  8.7499851e-004 -1.4560297e-008 -4.8374710e-007  4.8396618e-007  2.6647295e-003  2.6647295e-003  2.6647295e-003 
 9.9999998e-003  8.7499851e-004  0.0000000e+000  0.0000000e+000  0.0000000e+000  2.5261093e-003  2.5261093e-003  2.5261093e-003 
 0.0000000e+000  1.1249986e-003  0.0000000e+000  0.0000000e+000  0.0000000e+000 -2.0430093e-003 -2.0430093e-003 -2.0430093e-003 
 1.2499974e-004  1.1249986e-003 -2.5733024e-007  3.4373884e-006  3.4470070e-006 -2.2386436e-003 -2.2386436e-003 -2.2386436e-003 
 3.7499942e-004  1.1249986e-003 -7.2402895e-006  1.7349319e-005  1.8799486e-005 -2.6299127e-003 -2.6299127e-003 -2.6299125e-003 
 6.2499917e-004  1.1249986e-003 -2.2361504e-005  3.5390261e-005  4.1862961e-005 -2.9281827e-003 -2.9281827e-003 -2.9281818e-003 
 8.7499851e-004  1.1249986e-003 -4.4959586e-005  5.4699485e-005  7.0805356e-005 -3.2192734e-003 -3.2192734e-003 -3.2192708e-003 
 1.1249986e-003  1.1249986e-003 -7.4682430e-005  7.3322168e-005  1.0465948e-004 -3.4943698e-003 -3.4943698e-003 -3.4943642e-003 
 1.3749995e-003  1.1249986e-003 -1.1084622e-004  8.9938032e-005  1.4274359e-004 -3.7321469e-003 -3.7321469e-003 -3.7321367e-003 
 1.6250000e-003  1.1249986e-003 -1.5246056e-004  1.0372019e-004  1.8439659e-004 -3.9193882e-003 -3.9193882e-003 -3.9193709e-003 
 1.8750005e-003  1.1249986e-003 -1.9835040e-004  1.1419278e-004  2.2887305e-004 -4.0459731e-003 -4.0459731e-003 -4.0459470e-003 
 2.1250006e-003  1.1249986e-003 -2.4722912e-004  1.2112712e-004  2.7530713e-004 -4.1038482e-003 -4.1038482e-003 -4.1038105e-003 
 2.3750006e-003  1.1249986e-003 -2.9775748e-004  1.2447298e-004  3.2272749e-004 -4.0875636e-003 -4.0875636e-003 -4.0875115e-003 
 2.6250007e-003  1.1249986e-003 -3.4859439e-004  1.2430960e-004  3.7009583e-004 -3.9943373e-003 -3.9943373e-003 -3.9942688e-003 
 2.8750000e-003  1.1249986e-003 -3.9843839e-004  1.2081109e-004  4.1635139e-004 -3.8238820e-003 -3.8238820e-003 -3.8237954e-003 
 3.1250005e-003  1.1249986e-003 -4.4606050e-004  1.1422038e-004  4.6045223e-004 -3.5782133e-003 -3.5782133e-003 -3.5781073e-003 
 3.3750006e-003  1.1249986e-003 -4.9032766e-004  1.0483036e-004  5.0140865e-004 -3.2613946e-003 -3.2613946e-003 -3.2612688e-003 
 3.6250006e-003  1.1249986e-003 -5.3022226e-004  9.2969545e-005  5.3831120e-004 -2.8793304e-003 -2.8793304e-003 -2.8791856e-003 
 3.8750011e-003  1.1249986e-003 -5.6485517e-004  7.8990888e-005  5.7035161e-004 -2.4394586e-003 -2.4394586e-003 -2.4392959e-003 
 4.1250009e-003  1.1249986e-003 -5.9347501e-004  6.3264211e-005  5.9683743e-004 -1.9505477e-003 -1.9505477e-003 -1.9503696e-003 
 4.3750014e-003  1.1249986e-003 -6.1547512e-004  4.6169967e-005  6.1720441e-004 -1.4224162e-003 -1.4224162e-003 -1.4222257e-003 